! Touchstone file exported from HFSS 2021.1.0
!        File:           /home/yxiao22/Documents/ANSYS/mstrip_wt_bondwire/bondwire_wt_strips.aedt
!        Generated:      12:10:39 PM  Feb 11, 2022
!        Design:         design3
!        Project:        bondwire_wt_strips
!        Setup:          Setup1
!        Solution:       Sweep
!
! Variables:
!        bondwire_diam = 0.1mm
!        gap_x = 15mm
!        gap_y = 10mm
!        main_x = 80mm
!        main_y = 10mm
!        sub2x = 10mm
!        sub2y = 80mm
!        sub2z = 1mm
!        sub_z = 1mm
!        tr1_len = 30mm
!        tr1_w = 2mm
!        tr2_len = 80mm
!        tr2_thickness = 0.0017mm
!        tr2_w = 2mm
!        tr_thickness = 0.0017mm
!        tr_width = 2mm
!
# GHz S MA R 50.000000
! Terminal data exported
! Port[1] = 1
! Port[2] = 2
! Port[3] = 3
! Port[4] = 4
0                              0.999977680649977 0                2.0603483717979E-07 180              4.96055269612641E-09 0                4.87265264759232E-09 0                
                               2.06034837457346E-07 180              0.999977273137119 0                6.0519399588473E-09 180              6.06353227329697E-09 180              
                               4.96055419172232E-09 0                6.05194041512532E-09 180              0.00403037063969736 0                0.995937413188472 0                
                               4.87265108070164E-09 0                6.06353160961955E-09 180              0.995937413188472 0                0.00402977230986323 0                
! Gamma         0                0                0                0                0                0                0                0                
! Port Impedance         50               0                50               0                50               0                50               0                
0.030060120240481              0.998305709164706 -5.29125667243235 0.0123934433048577 83.853430398532  0.000193790188412081 85.3009826817289 0.000193766369630474 85.3092636647229 
                               0.0123934433048576 83.8534303985319 0.998291368618529 -5.32991205277947 0.000188454047598561 85.3021128771976 0.000188469118854813 85.2896197334731 
                               0.000193790188412092 85.3009826816532 0.000188454047598562 85.302112877134  0.00677453707839486 -51.7258219736101 0.993343602318442 -5.56639708697041 
                               0.000193766369630495 85.309263664699  0.000188469118854821 85.2896197334389 0.993343602318442 -5.56639708697039 0.00677071512152444 -51.722002191403 
! Gamma         0                0                0                0                0                0                0                0                
! Port Impedance         50               0                50               0                50               0                50               0                
0.0601202404809619             0.99630949854858 -10.506746115679 0.0247547155012455 77.8081732186262 0.000387659851225346 80.6181334718319 0.000387552400028291 80.6451565605971 
                               0.0247547155012454 77.8081732186262 0.996284129138188 -10.5831343514312 0.000376866485440284 80.6351183834594 0.000376927230848307 80.6026936634591 
                               0.000387659851225405 80.618133471808  0.000376866485440281 80.6351183834436 0.0108763540581732 -77.8674441463648 0.99216004869535 -11.0168225550102 
                               0.000387552400028329 80.6451565605534 0.000376927230848343 80.602693663426  0.992160048695347 -11.0168225550102 0.0108703195009796 -77.8742550750577 
! Gamma         0                0                0                0                0                0                0                0                
! Port Impedance         50               0                50               0                50               0                50               0                
0.0901803607214429             0.993709882676923 -15.7028115915538 0.037143005032938 71.7988469538033 0.000582118985246899 75.9509628512366 0.000581977737812398 75.9986970315835 
                               0.0371430050329379 71.7988469538033 0.993674329500517 -15.8165216442595 0.000565811337187975 75.9872477582562 0.000565868802118077 75.9344040828167 
                               0.000582118985246941 75.9509628512148 0.000565811337188037 75.9872477582406 0.015156296275101 -92.8980108781881 0.991063482923795 -16.4568442234728 
                               0.00058197773781236 75.9986970315529 0.000565868802118055 75.9344040827996 0.99106348292379 -16.4568442234729 0.0151471656419352 -92.9071961486706 
! Gamma         0                0                0                0                0                0                0                0                
! Port Impedance         50               0                50               0                50               0                50               0                
0.120240480961924              0.990459015390399 -20.8792301006025 0.0496208354628801 65.7699815089606 0.000777961819260183 71.2742138206056 0.000777878631625435 71.3368702667823 
                               0.04962083546288 65.7699815089605 0.990416563536972 -21.0294246434589 0.000756078083219452 71.3259685686187 0.000756065868847763 71.2575018936714 
                               0.000777961819260171 71.2742138205839 0.000756078083219518 71.3259685685939 0.0192999147387819 -103.731844400599 0.989869296542125 -21.8854447929933 
                               0.000777878631625362 71.3368702667719 0.000756065868847679 71.2575018936697 0.989869296542119 -21.8854447929933 0.0192873375386867 -103.743824442547 
! Gamma         0                0                0                0                0                0                0                0                
! Port Impedance         50               0                50               0                50               0                50               0                
0.150300601202405              0.986756291171199 -26.0457967311691 0.0621777786415673 59.7379470732354 0.000975265542931235 66.5653547446406 0.00097527092823207 66.6434253823824 
                               0.0621777786415671 59.7379470732354 0.986712868181576 -26.2321234129864 0.000947633611679782 66.6355827648217 0.00094751468690126 66.5509609324812 
                               0.000975265542931244 66.5653547446236 0.000947633611679803 66.6355827647999 0.0232492964538644 -112.607101014414 0.988775544222198 -27.3061989199971 
                               0.000975270928231976 66.6434253823743 0.000947514686901143 66.5509609324797 0.988775544222192 -27.3061989199971 0.0232336693416419 -112.622276980406 
! Gamma         0                0                0                0                0                0                0                0                
! Port Impedance         50               0                50               0                50               0                50               0                
0.180360721442886              0.982517250719652 -31.2074282340884 0.0748579847837563 53.6870270577258 0.00117423144047809 61.8199603080492 0.00117439004098812 61.9126756756695 
                               0.074857984783756 53.6870270577259 0.982474148804496 -31.4295762844605 0.00114066133858066 61.9104482309372 0.00114036822763836 61.8100750498237 
                               0.00117423144047811 61.8199603080346 0.00114066133858062 61.9104482309188 0.0269513035653478 -120.432831951831 0.987738334524253 -32.7194773952716 
                               0.00117439004098802 61.9126756756632 0.00114036822763821 61.810075049823  0.987738334524248 -32.7194773952716 0.026933096412479 -120.451296353259 
! Gamma         0                0                0                0                0                0                0                0                
! Port Impedance         50               0                50               0                50               0                50               0                
0.210420841683367              0.977670568687251 -36.3668080020819 0.0876956659147387 47.6078553641027 0.00137498198264959 57.0353832311794 0.00137536719318451 57.1421373923923 
                               0.0876956659147385 47.6078553641028 0.977628441778199 -36.6242427998967 0.0013352504445474 57.1490386974306 0.0013347034840819 57.0333712143551 
                               0.0013749819826496 57.0353832311664 0.00133525044454729 57.1490386974163 0.0303911222041186 -127.607575433764 0.986730281414342 -38.1274144640169 
                               0.0013753671931844 57.1421373923873 0.00133470348408172 57.0333712143556 0.986730281414338 -38.1274144640169 0.0303707657805011 -127.629803218874 
! Gamma         0                0                0                0                0                0                0                0                
! Port Impedance         50               0                50               0                50               0                50               0                
0.240480961923848              0.972148790029391 -41.5248956070312 0.100722871715315 41.4901738399025 0.00157753435889097 52.2095304846771 0.00157822958915023 52.3298578107041 
                               0.100722871715314 41.4901738399026 0.972109321816453 -41.8168978064383 0.00153139603150598 52.3502985648444 0.001530503589332 52.2198185250194 
                               0.00157753435889095 52.2095304846654 0.00153139603150582 52.3502985648345 0.0335589525642121 -134.351479237464 0.985733095026914 -43.5307965338788 
                               0.00157822958915011 52.3298578107    0.00153050358933182 52.2198185250213 0.985733095026911 -43.5307965338788 0.0335367753915983 -134.378045617649 
! Gamma         0                0                0                0                0                0                0                0                
! Port Impedance         50               0                50               0                50               0                50               0                
0.270541082164329              0.96588691926472 -46.6817818792982 0.113967995010527 35.3236803929734 0.00178179603772119 47.3414887181322 0.00178289712923296 47.4750186136259 
                               0.113967995010527 35.3236803929735 0.965853472042341 -47.0074922511026 0.00172899899626571 47.5142248812    0.00172765724178686 47.3694179481067 
                               0.00178179603772112 47.3414887181223 0.00172899899626553 47.5142248811944 0.0364453134565544 -140.79573090311 0.984737976406825 -48.9298784587454 
                               0.00178289712923286 47.4750186136222 0.0017276572417867 47.3694179481099 0.984737976406823 -48.9298784587454 0.0364215524148227 -140.827183747759 
! Gamma         0                0                0                0                0                0                0                0                
! Port Impedance         50               0                50               0                50               0                50               0                
0.30060120240481               0.958817972108667 -51.8369933305439 0.127454551904343 29.0982937219069 0.0019875694004973 42.4317772153111 0.00198918738171939 42.5781673192973 
                               0.127454551904343 29.098293721907  0.958795780807044 -52.1954463168092 0.0019278729865623 42.6420711488167 0.00192596500436221 42.4834166003759 
                               0.00198756940049718 42.4317772153035 0.00192787298656213 42.6420711488151 0.0390404547413966 -147.022259604695 0.983742772847083 -54.324770082114 
                               0.00198918738171929 42.5781673192937 0.00192596500436209 42.4834166003802 0.983742772847081 -54.3247700821141 0.039015297765394 -147.059096517886 
! Gamma         0                0                0                0                0                0                0                0                
! Port Impedance         50               0                50               0                50               0                50               0                
0.330661322645291              0.950869187235529 -56.9894924293538 0.14119989029403 22.8041921946697 0.00219456580740044 37.4823650495494 0.00219682912674459 37.6412292077451 
                               0.14119989029403 22.8041921946698 0.950865373505294 -57.3796386303592 0.00212775851937728 37.7363537208061 0.00212515263200908 37.5643293956544 
                               0.00219456580740029 37.4823650495446 0.00212775851937717 37.7363537208077 0.0413349743361507 -153.083914047905 0.982749211008289 -59.715599086034 
                               0.00219682912674449 37.6412292077414 0.00212515263200903 37.5643293956593 0.982749211008287 -59.715599086034 0.0413086040616111 -153.126611860093 
! Gamma         0                0                0                0                0                0                0                0                
! Port Impedance         50               0                50               0                50               0                50               0                
0.360721442885772              0.941959711421771 -62.1374998690656 0.155213599939212 16.4318030592786 0.00240242742017255 32.4965037394745 0.00240548319242328 32.6673524105117 
                               0.155213599939212 16.4318030592786 0.941983239048272 -62.5582202109194 0.00232834347673314 32.8007219716366 0.00232489080309377 32.6158291610675 
                               0.0024024274201724 32.4965037394722 0.00232834347673312 32.8007219716403 0.0433205664396504 -159.015662754782 0.981760848762336 -65.1025672578846 
                               0.00240548319242317 32.667352410508  0.00232489080309381 32.6158291610725 0.981760848762335 -65.1025672578847 0.043293189566785 -159.06472454031 
! Gamma         0                0                0                0                0                0                0                0                
! Port Impedance         50               0                50               0                50               0                50               0                
0.390781563126253              0.931999971617313 -67.2781930336927 0.169495504416221 9.9718267836444  0.00261075324950324 27.4784259757776 0.00261476766591879 27.6606272648604 
                               0.169495504416222 9.97182678364441 0.932061601807304 -67.7283069701646 0.00252928823959655 27.8397242871856 0.00252481975379899 27.642535471494  
                               0.00261075324950312 27.4784259757774 0.00252928823959667 27.8397242871901 0.0449905796600675 -164.841152957118 0.980781701535913 -70.4859575644812 
                               0.00261476766591868 27.660627264857  0.00252481975379913 27.6425354714986 0.980781701535912 -70.4859575644813 0.0449624382260644 -164.897154255876 
! Gamma         0                0                0                0                0                0                0                0                
! Port Impedance         50               0                50               0                50               0                50               0                
0.420841683366733              0.920892957782139 -72.4073026175148 0.184033196804697 3.41533588553643 0.00281912499930114 22.4329767390703 0.00282428347726166 22.6257323450095 
                               0.184033196804697 3.41533588553643 0.921005240264378 -72.8855723493797 0.00273025287590645 22.8584988820969 0.00272457650992357 22.6497279211566 
                               0.00281912499930109 22.4329767390713 0.00273025287590669 22.8584988821012 0.0463403456195716 -170.576676038597 0.979815383727779 -75.8661193766048 
                               0.00282428347726153 22.6257323450066 0.00272457650992381 22.6497279211602 0.979815383727779 -75.8661193766049 0.0463117125832592 -170.640302841592 
! Gamma         0                0                0                0                0                0                0                0                
! Port Impedance         50               0                50               0                50               0                50               0                
0.450901803607214              0.908537764743064 -77.5186193006295 0.198799153480941 -3.24603336230421 0.00302712876548917 17.3652492730869 0.00303363631373522 17.5675696859835 
                               0.198799153480941 -3.24603336230422 0.908715092382513 -78.0237522044143 0.00293092328326804 17.862422632585  0.00292382186895395 17.6430127380633 
                               0.0030271287654892 17.3652492730882 0.00293092328326839 17.8624226325883 0.0473673251457595 -176.233609698065 0.978864623464377 -81.2434451331505 
                               0.0030336363137351 17.5675696859815 0.00292382186895427 17.6430127380657 0.978864623464377 -81.2434451331506 0.0473384892840672 -176.305686816941 
! Gamma         0                0                0                0                0                0                0                0                
! Port Impedance         50               0                50               0                50               0                50               0                
0.480961923847695              0.894835834481196 -82.6034256140304 0.213747543256875 -10.0197877445293 0.00323437030672368 12.280286376703  0.00324245194496491 12.4909496390155 
                               0.213747543256875 -10.0197877445294 0.89509458313609 -83.1340779056897 0.00313103317069608 12.8567550421988 0.00312226416525702 12.6279754113785 
                               0.00323437030672379 12.2802863767037 0.00313103317069651 12.8567550422006 0.0480711323965689 178.18006571466  0.977931043985339 -86.6183451723966 
                               0.00324245194496483 12.4909496390145 0.0031222641652574 12.6279754113796 0.977931043985339 -86.6183451723968 0.0480423779804256 178.098554216007 
! Gamma         0                0                0                0                0                0                0                0                
! Port Impedance         50               0                50               0                50               0                50               0                
0.511022044088176              0.879700338084358 -87.6498815897267 0.22881095552857 -16.9121803198681 0.00344048371756649 7.18288103429269 0.00345038396296464 7.40036933550759 
                               0.22881095552857 -16.9121803198681 0.880059103103658 -88.2046676686673 0.00333037930441458 7.8463146064804  0.00331967722246008 7.60985299334534 
                               0.00344048371756664 7.1828810342924  0.00333037930441503 7.84631460648059 0.0484534873693152 172.658829305778 0.977015132905647 -91.9912242745218 
                               0.00345038396296463 7.40036933550747 0.00331967722246049 7.60985299334526 0.977015132905647 -91.991224274522 0.0484250733926311 172.56672450172  
! Gamma         0                0                0                0                0                0                0                0                
! Port Impedance         50               0                50               0                50               0                50               0                
0.541082164328657              0.863068982149599 -92.6424160445879 0.243897404907782 -23.9277157071358 0.00364513507569379 2.07747993405566 0.00365711498386869 2.29990275549552 
                               0.243897404907782 -23.9277157071358 0.863548903624188 -93.2199298711529 0.00352882845464971 2.83521991334836 0.00351591071012307 2.59325657487613 
                               0.00364513507569394 2.07747993405428 0.00352882845465013 2.83521991334726 0.0485181329812573 167.199053566312 0.976116339810125 -97.3624618034519 
                               0.00365711498386879 2.29990275549589 0.00351591071012347 2.59325657487516 0.976116339810125 -97.362461803452 0.0484902754348616 167.095007122504 
! Gamma         0                0                0                0                0                0                0                0                
! Port Impedance         50               0                50               0                50               0                50               0                
0.571142284569138              0.844920157210424 -97.5612083296763 0.258888121738596 -31.0685746985997 0.00384802348445131 -3.03183069770781 0.00386235383811254 -2.80680655417216 
                               0.258888121738596 -31.0685746985998 0.845545294768971 -98.1600653359735 0.00372631575491964 -2.17328174678864 0.00371089221698617 -2.41803279200905 
                               0.00384802348445142 -3.03183069771004 0.00372631575492 -2.17328174679055 0.0482707403729679 161.798686500918 0.975233255649344 -102.732396391918 
                               0.00386235383811276 -2.80680655417184 0.00371089221698655 -2.41803279201056 0.975233255649344 -102.732396391918 0.0482435995357393 161.681143130178 
! Gamma         0                0                0                0                0                0                0                0                
! Port Impedance         50               0                50               0                50               0                50               0                
0.601202404809619              0.82529171864934 -102.381886515062 0.273636780782651 -38.3339918416725 0.00404888183795317 -8.14128973074404 0.00406583180956963 -7.9164790886182 
                               0.273636780782651 -38.3339918416725 0.82608939290474 -103.000796400291 0.00392283545409889 -7.17688796125552 0.00390462150713517 -7.42118153721297 
                               0.00404888183795322 -8.14128973074669 0.00392283545409916 -7.17688796125764 0.0477188166607775 156.457109478534 0.974363836626936 -108.101315521843 
                               0.00406583180956998 -7.91647908861848 0.00390462150713552 -7.42118153721467 0.974363836626937 -108.101315521843 0.04769248985413 156.324282139122 
! Gamma         0                0                0                0                0                0                0                0                
! Port Impedance         50               0                50               0                50               0                50               0                
0.6312625250501                0.804300805085352 -107.075612183549 0.28797090573423 -45.7196400370956 0.00424747889753444 -13.2474094919192 0.00426730058803604 -13.0260972762738 
                               0.28797090573423 -45.7196400370955 0.805301771577125 -107.713493538262 0.00411842605675439 -12.174219702379 0.00409715841716346 -12.4143323103457 
                               0.00424747889753442 -13.2474094919218 0.00411842605675456 -12.1742197023808 0.0468716228731454 151.175131718678 0.973505642284259 -113.469449952192 
                               0.00426730058803649 -13.0260972762751 0.00409715841716377 -12.4143323103474 0.97350564228426 -113.469449952192 0.0468461417571652 151.024965037987 
! Gamma         0                0                0                0                0                0                0                0                
! Port Impedance         50               0                50               0                50               0                50               0                
0.661322645290581              0.782162050755587 -111.609758549715 0.301696148466226 -53.21709761929  0.00444362330033602 -18.3469337077687 0.00446653358934354 -18.132803887028 
                               0.301696148466226 -53.21709761929  0.783400325666423 -112.265904119071 0.00431315244665725 -17.1647188356739 0.00428860652108345 -17.3965521993256 
                               0.00444362330033594 -18.3469337077708 0.00431315244665735 -17.1647188356751 0.0457401056707763 145.955106282485 0.972656063224695 -118.836972663964 
                               0.00446653358934406 -18.1328038870306 0.00428860652108372 -17.3965521993271 0.972656063224695 -118.836972663964 0.0457154360683493 145.78522324095  
! Gamma         0                0                0                0                0                0                0                0                
! Port Impedance         50               0                50               0                50               0                50               0                
0.691382765531062              0.759200561769666 -115.949399388867 0.31460390992066 -60.8134902384214 0.00463716925925391 -23.4368203368989 0.00466333109052307 -23.2338281667758 
                               0.31460390992066 -60.8134902384214 0.760712697161541 -116.623694058769 0.00450708772275394 -22.1484867233362 0.00447909496616175 -22.3677165328808 
                               0.00463716925925381 -23.4368203369004 0.00450708772275398 -22.1484867233366 0.0443368440915119 140.801172482262 0.971812518881036 -124.204001790709 
                               0.0046633310905236 -23.2338281667795 0.004479094966162 -22.3677165328822 0.971812518881036 -124.204001790709 0.044312885584563 140.608798583042 
! Gamma         0                0                0                0                0                0                0                0                
! Port Impedance         50               0                50               0                50               0                50               0                
0.721442885771543              0.735855451734059 -120.059785485924 0.326482304279199 -68.4914045733406 0.00482802313664024 -28.5142545836734 0.00485752857133512 -28.3264548964027 
                               0.326482304279199 -68.4914045733406 0.737679086624384 -120.752966005564 0.00470029719814039 -27.1260900095142 0.00466876078749801 -27.3283491460025 
                               0.00482802313664015 -28.5142545836742 0.00470029719814039 -27.1260900095141 0.0426760115230645 135.719650285524 0.970972610176993 -129.570606862877 
                               0.0048575285713356 -28.3264548964071 0.00466876078749823 -27.3283491460039 0.970972610176994 -129.570606862877 0.0426525936970286 135.501508012574 
! Gamma         0                0                0                0                0                0                0                0                
! Port Impedance         50               0                50               0                50               0                50               0                
0.751503006012024              0.71266997533058 -123.90986287776 0.337129799476499 -76.2291558801253 0.00501614981677835 -33.5766898601075 0.00504900694476589 -33.4080401452729 
                               0.337129799476499 -76.2291558801252 0.714841588884815 -124.62378841179 0.00489282643651188 -32.0983597853226 0.00485773362577277 -32.279441525088 
                               0.00501614981677829 -33.5766898601078 0.00489282643651188 -32.0983597853224 0.0407733531130581 130.719638547217 0.970134215995886 -134.936817603323 
                               0.00504900694476627 -33.4080401452773 0.00485773362577296 -32.2794415250897 0.970134215995886 -134.936817603323 0.0407502252960563 130.471802472522 
! Gamma         0                0                0                0                0                0                0                0                
! Port Impedance         50               0                50               0                50               0                50               0                
0.781563126252505              0.690265680003897 -127.476658881614 0.346370125683226 -84.0014524423119 0.00520157781039467 -38.6219099397244 0.00523770304611223 -38.4760687477589 
                               0.346370125683226 -84.0014524423119 0.692817649285917 -128.214537311192 0.00508469446407923 -37.0662073179213 0.00504612421256454 -37.2222719985583 
                               0.00520157781039469 -38.6219099397243 0.00508469446407922 -37.0662073179214 0.0386461798430662 125.813907936606 0.969295526102736 -140.3026344606  
                               0.00523770304611249 -38.4760687477626 0.00504612421256469 -37.2222719985607 0.969295526102736 -140.3026344606  0.0386229913820573 125.53160670692  
! Gamma         0                0                0                0                0                0                0                0                
! Port Impedance         50               0                50               0                50               0                50               0                
0.811623246492986              0.669300585054286 -130.750030783751 0.354066450268564 -91.7804400616073 0.00538440220927604 -43.6481036581589 0.00542361877950509 -43.5282431753137 
                               0.354066450268564 -91.7804400616074 0.67225787769676 -131.516525009786 0.00527589252312595 -42.0304744327296 0.0052340173592269 -42.1582428558017 
                               0.00538440220927613 -43.6481036581588 0.00527589252312593 -42.0304744327305 0.0363133828618318 121.020243541054 0.968455006589736 -145.668040049573 
                               0.00542361877950522 -43.528243175316 0.00523401735922698 -42.1582428558047 0.968455006589736 -145.668040049573 0.0362896511819129 120.697588026717 
! Gamma         0                0                0                0                0                0                0                0                
! Port Impedance         50               0                50               0                50               0                50               0                
0.841683366733467              0.650414877983479 -133.736900032385 0.360132615895431 -99.5370406162896 0.00556478488136976 -48.6539435393369 0.00560682758956881 -48.5625912460906 