! Touchstone file exported from HFSS 2021.1.0
!        File:           /home/yxiao22/Documents/ANSYS/mstrip_wt_bondwire/exercise_1.aedt
!        Generated:      11:52:15 AM  Feb 11, 2022
!        Design:         design2
!        Project:        exercise_1
!        Setup:          Setup1
!        Solution:       Sweep
!
! Variables:
!        bondwire_diam = 0.1mm
!        gap_x = 10mm
!        gap_y = 10mm
!        main_x = 80mm
!        main_y = 10mm
!        sub_z = 1mm
!        tr1_len = 30mm
!        tr1_w = 2mm
!        tr_thickness = 0.0017mm
!        tr_width = 2mm
!
# GHz S MA R 50.000000
! Terminal data exported
! Port[1] = 1
! Port[2] = 2
0                              0.999977553625513 0                3.24717807752262E-07 180              3.2471780701804E-07 180              0.999977138859094 0                
! Gamma         0                0                0                0                
! Port Impedance         50               0                50               0                
0.0501672240802676             0.997424461657595 -8.517635069204  0.0161946958016515 80.7859672738537 0.0161946958016516 80.7859672738538 0.997386062771977 -8.64557990391883 
! Gamma         0                0                0                0                
! Port Impedance         50               0                50               0                
0.100334448160535              0.994314676742262 -16.9207963283299 0.0323736613583171 71.7464930438298 0.0323736613583172 71.7464930438298 0.994236494348661 -17.1741134719854 
! Gamma         0                0                0                0                
! Port Impedance         50               0                50               0                
0.150501672240803              0.990742552559141 -25.3283424766996 0.0486699204731953 62.7613798412918 0.0486699204731955 62.7613798412919 0.990641985693076 -25.7063655601433 
! Gamma         0                0                0                0                
! Port Impedance         50               0                50               0                
0.20066889632107               0.986217805661766 -33.685344302227 0.0651300367009667 53.7699620872516 0.0651300367009669 53.7699620872517 0.986082082890132 -34.1854596267002 
! Gamma         0                0                0                0                
! Port Impedance         50               0                50               0                
0.250836120401338              0.981072247483395 -41.9942060710942 0.0818531873623027 44.7775306660853 0.0818531873623029 44.7775306660853 0.980891038802356 -42.6126184688587 
! Gamma         0                0                0                0                
! Port Impedance         50               0                50               0                
0.301003344481605              0.975551738824753 -50.2698569679989 0.0989623587688999 35.7721471814368 0.0989623587689001 35.7721471814368 0.975325568373282 -51.0016264183388 
! Gamma         0                0                0                0                
! Port Impedance         50               0                50               0                
0.351170568561873              0.969710417523381 -58.538475391806 0.116599485394821 26.7331313522033 0.116599485394821 26.7331313522033 0.969462023051414 -59.3780274669459 
! Gamma         0                0                0                0                
! Port Impedance         50               0                50               0                
0.40133779264214               0.963295370909821 -66.8330384724501 0.134919784326582 17.6347516945496 0.134919784326582 17.6347516945496 0.963076936563125 -67.7756217650154 
! Gamma         0                0                0                0                
! Port Impedance         50               0                50               0                
0.451505016722408              0.955633955100365 -75.1824295719873 0.154086847652472 8.44841971201032 0.154086847652473 8.44841971201031 0.955503509190438 -76.2267936641126 
! Gamma         0                0                0                0                
! Port Impedance         50               0                50               0                
0.501672240802676              0.945650236090919 -83.5866971233904 0.174268970475073 -0.856183042978557 0.174268970475073 -0.856183042978566 0.945560093636838 -84.7357170757481 
! Gamma         0                0                0                0                
! Port Impedance         50               0                50               0                
0.551839464882943              0.932547770116371 -91.9814459771084 0.195636135676637 -10.3109429180063 0.195636135676637 -10.3109429180063 0.932253818660621 -93.2265494070112 
! Gamma         0                0                0                0                
! Port Impedance         50               0                50               0                
0.602006688963211              0.917510669467618 -100.287549021514 0.218356066728857 -19.9499943669968 0.218356066728857 -19.9499943669968 0.91717798040828 -101.597198749953 
! Gamma         0                0                0                0                
! Port Impedance         50               0                50               0                
0.652173913043478              0.902417861272412 -108.623849951232 0.242586585769125 -29.8110565342352 0.242586585769125 -29.8110565342352 0.902581675725476 -110.014283584347 
! Gamma         0                0                0                0                
! Port Impedance         50               0                50               0                
0.702341137123746              0.88497585361746 -117.185047735602 0.268459896055651 -39.9371496537715 0.268459896055651 -39.9371496537715 0.885231418716331 -118.681065850101 
! Gamma         0                0                0                0                
! Port Impedance         50               0                50               0                
0.752508361204013              0.861486711130987 -125.924409899502 0.296052153463202 -50.3782496773469 0.296052153463202 -50.378249677347 0.861486181373974 -127.50371018242 
! Gamma         0                0                0                0                
! Port Impedance         50               0                50               0                
0.802675585284281              0.830654189162672 -134.665657798223 0.325328990649913 -61.1921348700531 0.325328990649913 -61.1921348700531 0.830517081826299 -136.304613357364 
! Gamma         0                0                0                0                
! Port Impedance         50               0                50               0                
0.852842809364548              0.793049777787861 -143.23845999091 0.356055812920868 -72.4431696549235 0.356055812920868 -72.4431696549236 0.79300699022225 -144.929338357109 
! Gamma         0                0                0                0                
! Port Impedance         50               0                50               0                
0.903010033444816              0.750165711333368 -151.501622368551 0.387664644169601 -84.1970604148604 0.387664644169601 -84.1970604148604 0.750367253939174 -153.247804951452 
! Gamma         0                0                0                0                
! Port Impedance         50               0                50               0                
0.953177257525084              0.703911731453487 -159.345074860556 0.419085722994212 -96.5089636257619 0.419085722994212 -96.5089636257619 0.704394476471192 -161.15478433821 
! Gamma         0                0                0                0                
! Port Impedance         50               0                50               0                
1.00334448160535               0.655584652296551 -166.680711879331 0.448634052347698 -109.396021100649 0.448634052347698 -109.396021100649 0.656244915303733 -168.526299646667 
! Gamma         0                0                0                0                
! Port Impedance         50               0                50               0                
1.05351170568562               0.596772956078568 -172.838797793259 0.474950757230439 -122.698339125505 0.47495075723044 -122.698339125505 0.598269210552205 -174.3763186608  
! Gamma         0                0                0                0                
! Port Impedance         50               0                50               0                
1.10367892976589               0.540184830455932 -177.204319641633 0.495721621446623 -136.36340957263 0.495721621446623 -136.36340957263 0.5434542620758  -178.763354127747 
! Gamma         0                0                0                0                
! Port Impedance         50               0                50               0                
1.15384615384615               0.493301086866333 -179.410834230116 0.509237543308463 -150.219260873535 0.509237543308464 -150.219260873535 0.497239112023314 178.748732579704 
! Gamma         0                0                0                0                
! Port Impedance         50               0                50               0                
1.20401337792642               0.463835999217395 -179.665491430234 0.514574387066863 -164.057053430502 0.514574387066863 -164.057053430502 0.466808395385108 178.161569455154 
! Gamma         0                0                0                0                
! Port Impedance         50               0                50               0                
1.25418060200669               0.45637773726425 -179.035433070935 0.511867131895708 -177.666157580934 0.511867131895708 -177.666157580934 0.457856825559985 178.60276498776  
! Gamma         0                0                0                0                
! Port Impedance         50               0                50               0                
1.30434782608696               0.469686230171016 -178.995446428066 0.50221996418842 169.130005962988 0.502219964188419 169.130005962988 0.470515435383953 178.576673417926 
! Gamma         0                0                0                0                
! Port Impedance         50               0                50               0                
1.35451505016722               0.497753554300235 179.476950115259 0.487320975470032 156.451327983425 0.487320975470031 156.451327983426 0.49898438571955 176.959264745945 
! Gamma         0                0                0                0                
! Port Impedance         50               0                50               0                
1.40468227424749               0.533460015025317 176.211537955665 0.468984598948188 144.356883314508 0.468984598948187 144.356883314508 0.53542210102678 173.51948198066  
! Gamma         0                0                0                0                
! Port Impedance         50               0                50               0                
1.45484949832776               0.571199781176127 171.51006603642  0.448814228156465 132.854938424075 0.448814228156464 132.854938424075 0.573541072615788 168.596987581873 
! Gamma         0                0                0                0                
! Port Impedance         50               0                50               0                
1.50501672240803               0.607483088471888 165.779527194306 0.428046448430562 121.918841495118 0.428046448430562 121.918841495119 0.609631491118562 162.654720218604 
! Gamma         0                0                0                0                
! Port Impedance         50               0                50               0                
1.55518394648829               0.640516221591182 159.365850274665 0.407537408414476 111.50225294652  0.407537408414476 111.50225294652  0.642038929251282 156.071346360745 
! Gamma         0                0                0                0                
! Port Impedance         50               0                50               0                
1.60535117056856               0.669606281622705 152.519578141854 0.38782314076218 101.550685090367 0.38782314076218 101.550685090367 0.670345254154811 149.104916176336 
! Gamma         0                0                0                0                
! Port Impedance         50               0                50               0                
1.65551839464883               0.694692020126888 145.4092313717   0.369201122263194 92.0089588398099 0.369201122263194 92.0089588398101 0.694744487991842 141.916089200584 
! Gamma         0                0                0                0                
! Port Impedance         50               0                50               0                
1.7056856187291                0.716035942189906 138.143461881756 0.351805217920803 82.8253928898063 0.351805217920804 82.8253928898065 0.715669092516318 134.599317112462 
! Gamma         0                0                0                0                
! Port Impedance         50               0                50               0                
1.75585284280936               0.734039887661576 130.79000120177  0.335664253680303 73.9537820888612 0.335664253680303 73.9537820888613 0.733596813008132 127.207377337586 
! Gamma         0                0                0                0                
! Port Impedance         50               0                50               0                
1.80602006688963               0.749141535301693 123.389434733614 0.320743823920154 65.3540447128925 0.320743823920155 65.3540447128926 0.748964266553387 119.767927523406 
! Gamma         0                0                0                0                
! Port Impedance         50               0                50               0                
1.8561872909699                0.761760188013692 115.964624807854 0.306974440564708 56.9921488016269 0.306974440564709 56.9921488016271 0.762136843416331 112.293986987713 
! Gamma         0                0                0                0                
! Port Impedance         50               0                50               0                
1.90635451505017               0.772271227331599 108.527010020294 0.294269706379317 48.8396972256882 0.294269706379317 48.8396972256883 0.773405655890218 104.7903802874   
! Gamma         0                0                0                0                
! Port Impedance         50               0                50               0                
1.95652173913043               0.780996628345802 101.080792117784 0.282537652545528 40.8733890830683 0.28253765254553 40.8733890830683 0.78299604670684 97.2576389539933 
! Gamma         0                0                0                0                
! Port Impedance         50               0                50               0                
2.0066889632107                0.788204110522703 93.6257277216433 0.271687587791459 33.0744721923158 0.27168758779146 33.0744721923158 0.791080000348384 89.6943377892284 
! Gamma         0                0                0                0                
! Port Impedance         50               0                50               0                
2.05685618729097               0.79411067891056 86.1590047920642 0.261634096552027 25.4282402887831 0.261634096552028 25.4282402887832 0.797788913592063 82.0984718336086 
! Gamma         0                0                0                0                
! Port Impedance         50               0                50               0                
2.10702341137124               0.798888196111865 78.6765167338636 0.252299282582498 17.9235937501755 0.252299282582499 17.9235937501756 0.803225215776813 74.4682423664856 
! Gamma         0                0                0                0                
! Port Impedance         50               0                50               0                
2.1571906354515                0.802669715462227 71.173735647904  0.243613972855848 10.5526634744225 0.243613972855849 10.5526634744224 0.80747227734244 66.802474659853  
! Gamma         0                0                0                0                
! Port Impedance         50               0                50               0                
2.20735785953177               0.805555918124285 63.6463135443937 0.235518338678974 3.31048697514054 0.235518338678974 3.31048697514049 0.81060245703083 59.100803181492  
! Gamma         0                0                0                0                
! Port Impedance         50               0                50               0                
2.25752508361204               0.807621326256934 56.0904933435588 0.227962220720721 -3.8052803646894 0.227962220720722 -3.80528036468933 0.812683302978426 51.3637087284357 
! Gamma         0                0                0                0                
! Port Impedance         50               0                50               0                
2.30769230769231               0.808920128394571 48.5033813218847 0.220905333369877 -10.7946400977018 0.220905333369877 -10.7946400977018 0.813781986563298 43.5924621366843 
! Gamma         0                0                0                0                
! Port Impedance         50               0                50               0                
2.35785953177257               0.80949152232248 40.8831135671149 0.214317450788015 -17.6555363537625 0.214317450788016 -17.6555363537625 0.813968079448022 35.7890118797766 
! Gamma         0                0                0                0                
! Port Impedance         50               0                50               0                
2.40802675585284               0.809364498499297 33.2289373265113 0.208178627827405 -24.3841807056839 0.208178627827405 -24.3841807056839 0.813314812422465 27.9558426414365 
! Gamma         0                0                0                0                
! Port Impedance         50               0                50               0                
2.45819397993311               0.808561981229136 25.5412215337806 0.202479473852141 -30.975448369026 0.202479473852141 -30.975448369026 0.81189898700106 20.0958255895316 
! Gamma         0                0                0                0                
! Port Impedance         50               0                50               0                
2.50836120401338               0.807104233828856 17.8214077312422 0.197221469735397 -37.4233811407798 0.197221469735398 -37.4233811407799 0.809799744755494 12.2120767090339 
! Gamma         0                0                0                0                
! Port Impedance         50               0                50               0                
2.55852842809365               0.805011430358166 10.0719119634873 0.192417293339757 -43.721834045939 0.192417293339758 -43.7218340459391 0.807096428983842 4.30783615796238 
! Gamma         0                0                0                0                
! Port Impedance         50               0                50               0                
2.60869565217391               0.802305307632334 2.29598915225052 0.188091093719424 -49.8653002119064 0.188091093719424 -49.8653002119066 0.803865792922595 -3.61362126582361 
! Gamma         0                0                0                0                
! Port Impedance         50               0                50               0                
2.65886287625418               0.799009840369191 -5.50242673422178 0.184278627918437 -55.8499386282711 0.184278627918437 -55.8499386282713 0.800178815455869 -11.5490369406814 
! Gamma         0                0                0                0                
! Port Impedance         50               0                50               0                
2.70903010033445               0.795150928575952 -13.3188913081949 0.181027147596092 -61.6748078776008 0.181027147596093 -61.674807877601 0.79609737995199 -19.4951749554699 
! Gamma         0                0                0                0                
! Port Impedance         50               0                50               0                
2.75919732441472               0.790755145667559 -21.1486098242725 0.178394899813701 -67.3432714616704 0.178394899813701 -67.3432714616706 0.79167105859177 -27.4487803148447 
! Gamma         0                0                0                0                
! Port Impedance         50               0                50               0                
2.80936454849498               0.785847662766601 -28.9865697726326 0.176450094796365 -72.8644852061868 0.176450094796366 -72.8644852061869 0.786934229739666 -35.4064857346505 
! Gamma         0                0                0                0                
! Port Impedance         50               0                50               0                
2.85953177257525               0.780449534117363 -36.827626064823 0.175269204064179 -78.2548086396667 0.175269204064179 -78.2548086396668 0.781903746715241 -43.3646644616545 
! Gamma         0                0                0                0                
! Port Impedance         50               0                50               0                
2.90969899665552               0.774574598159681 -44.6665183106784 0.17493449597777 -83.5389144480715 0.17493449597777 -83.5389144480717 0.776577379088799 -51.3192268875471 
! Gamma         0                0                0                0                
! Port Impedance         50               0                50               0                
2.95986622073579               0.768226320387707 -52.4977995415087 0.175530797715361 -88.7503288402655 0.175530797715361 -88.7503288402657 0.770933266301273 -59.2653593589964 
! Gamma         0                0                0                0                
! Port Impedance         50               0                50               0                
3.01003344481605               0.761394984085512 -60.3156561192521 0.177141584584083 -93.931152933687 0.177141584584083 -93.9311529336873 0.764930657980125 -67.1972052174848 
! Gamma         0                0                0                0                
! Port Impedance         50               0                50               0                
3.06020066889632               0.75405573289333 -68.1136000208051 0.179844611711301 -99.1308148415491 0.179844611711301 -99.1308148415493 0.758512260070494 -75.1074916885923 
! Gamma         0                0                0                0                
! Port Impedance         50               0                50               0                
3.11036789297659               0.746168093451086 -75.884018513981 0.183707376089983 -104.403879612199 0.183707376089983 -104.403879612199 0.75160854737385 -82.9871129893521 
! Gamma         0                0                0                0                
! Port Impedance         50               0                50               0                
3.16053511705686               0.737677757107567 -83.6175749518297 0.188782686077613 -109.807154619992 0.188782686077614 -109.807154619992 0.744144417931183 -90.8246913586415 
! Gamma         0                0                0                0                
! Port Impedance         50               0                50               0                
3.21070234113712               0.728521556274453 -91.3024721089081 0.195104504428134 -115.396496251699 0.195104504428134 -115.396496251699 0.73604851801619 -98.6061551263225 
! Gamma         0                0                0                0                
! Port Impedance         50               0                50               0                
3.26086956521739               0.718636675172022 -98.9236220343214 0.202684049078261 -121.223779397934 0.202684049078262 -121.223779397934 0.72726541230332 -106.314397599938 
! Gamma         0                0                0                0                
! Port Impedance         50               0                50               0                
3.31103678929766               0.707975071043294 -106.461820819934 0.211505956346915 -127.334409045012 0.211505956346916 -127.334409045012 0.717770459814614 -113.929112574084 
! Gamma         0                0                0                0                
! Port Impedance         50               0                50               0                
3.36120401337793               0.69652366570287 -113.893108737384 0.221524225723896 -133.765569168044 0.221524225723897 -133.765569168044 0.707586736592144 -121.426939353408 
! Gamma         0                0                0                0                
! Port Impedance         50               0                50               0                
3.41137123745819               0.684329861951968 -121.188604661422 0.232657750298504 -140.545194936546 0.232657750298505 -140.545194936546 0.696802603914663 -128.782085494024 
! Gamma         0                0                0                0                
! Port Impedance         50               0                50               0                
3.46153846153846               0.671530139395465 -128.315219908058 0.244785527531385 -147.691496428123 0.244785527531386 -147.691496428123 0.685587602259681 -135.967614870239 
! Gamma         0                0                0                0                
! Port Impedance         50               0                50               0                
3.51170568561873               0.658376898813277 -135.237730030876 0.257742124328889 -155.212799114985 0.257742124328889 -155.212799114985 0.674203404354002 -142.95756818446 
! Gamma         0                0                0                0                
! Port Impedance         50               0                50               0                
3.561872909699                 0.645255852110818 -141.922620221754 0.271314560408021 -163.107500996953 0.271314560408022 -163.107500996953 0.663005868196397 -149.729989264123 
! Gamma         0                0                0                0                
! Port Impedance         50               0                50               0                
3.61204013377926               0.632684320775304 -148.343796154928 0.285242322564438 -171.364051772959 0.285242322564439 -171.364051772959 0.652434209428184 -156.270729419884 
! Gamma         0                0                0                0                
! Port Impedance         50               0                50               0                
3.66220735785953               0.621281664745169 -154.489577863735 0.299222494068447 -179.960995720426 0.299222494068448 -179.960995720426 0.642984439788691 -162.577583280874 
! Gamma         0                0                0                0                
! Port Impedance         50               0                50               0                
3.7123745819398                0.611708414941497 -160.369452758498 0.312921690157848 171.132756734554 0.312921690157848 171.132756734554 0.635166842699348 -168.66392652461 
! Gamma         0                0                0                0                
! Port Impedance         50               0                50               0                
3.76254180602007               0.604580549887147 -166.018257750923 0.325995405119541 161.957195720985 0.325995405119542 161.957195720985 0.629451272683917 -174.560733469962 
! Gamma         0                0                0                0                
! Port Impedance         50               0                50               0                
3.81270903010033               0.600376638546452 -171.495468294379 0.338113523945829 152.559804764566 0.338113523945829 152.559804764566 0.626208568001237 179.684112945672 
! Gamma         0                0                0                0                
! Port Impedance         50               0                50               0                
3.8628762541806                0.599362369140358 -176.878604815938 0.348988581924488 142.993388769258 0.348988581924489 142.993388769258 0.625659605138261 174.009756403768 
! Gamma         0                0                0                0                
! Port Impedance         50               0                50               0                
3.91304347826087               0.601553937211856 177.747902028446 0.358401713183527 133.313241439956 0.358401713183527 133.313241439956 0.62784354065321 168.34908599187  
! Gamma         0                0                0                0                
! Port Impedance         50               0                50               0                
3.96321070234114               0.606728753169778 172.305023788531 0.366220997388552 123.573960755659 0.366220997388552 123.573960755659 0.632612689201621 162.636746420885 
! Gamma         0                0                0                0                
! Port Impedance         50               0                50               0                
4.0133779264214                0.61447552260726 166.728907473031 0.372408465650359 113.826353111282 0.372408465650359 113.826353111282 0.639654484180832 156.816452148281 
! Gamma         0                0                0                0                
! Port Impedance         50               0                50               0                
4.06354515050167               0.624264746314563 160.9758788047   0.377014878677173 104.114869563936 0.377014878677173 104.114869563936 0.648534000054173 150.84595255768  
! Gamma         0                0                0                0                
! Port Impedance         50               0                50               0                
4.11371237458194               0.63551949378815 155.022627552247 0.38016439766856 94.4758908855989 0.38016439766856 94.475890885599  0.658746461800632 144.698939804682 
! Gamma         0                0                0                0                
! Port Impedance         50               0                50               0                