! Touchstone file exported from HFSS 2021.1.0
!        File:           /home/yxiao22/Documents/ANSYS/elementary_tests/bondwires_tests.aedt
!        Generated:      7:46:36 PM  Feb 10, 2022
!        Design:         bondwire_with_strip
!        Project:        bondwires_tests
!        Setup:          Setup1
!        Solution:       Sweep
!
! Variables:
!        bondwire_diam = 0.1mm
!        main_x = 80mm
!        main_y = 10mm
!        sub_z = 1mm
!        tr1_len = 30mm
!        tr1_w = 2mm
!        tr_thickness = 0.0017mm
!        tr_width = 2mm
!
# GHz S MA R 50.000000
! Terminal data exported
! Port[1] = 1
! Port[2] = 2
0                              0.00386356439920155 0                0.996112937323346 0                0.996112937323232 0                0.00386302051071663 0                
! Gamma         0                0                0                0                
! Port Impedance         50               0                50               0                
0.0501672240802676             0.0448351712802044 73.478116316276  0.991755929212564 -10.2002600987466 0.991755929212563 -10.2002600987466 0.0448445206105139 73.3419436464113 
! Gamma         0                0                0                0                
! Port Impedance         50               0                50               0                
0.100334448160535              0.0880696354698575 66.6839123486518 0.986669161966808 -20.2322625724816 0.986669161966806 -20.2322625724816 0.0880821039239641 66.4105467327838 
! Gamma         0                0                0                0                
! Port Impedance         50               0                50               0                
0.150501672240803              0.131221386134745 58.0076420852088 0.979971544658156 -30.2223728892289 0.979971544658155 -30.2223728892288 0.13124335400899 57.5880455036765 
! Gamma         0                0                0                0                
! Port Impedance         50               0                50               0                
0.20066889632107               0.173923295605727 48.7793313278559 0.971668352490431 -40.1730216746847 0.971668352490431 -40.1730216746846 0.173927210513938 48.2304113049172 
! Gamma         0                0                0                0                
! Port Impedance         50               0                50               0                
0.250836120401338              0.2159485209735  39.3302613363935 0.961621459961907 -50.0842421192866 0.961621459961907 -50.0842421192865 0.215930722447907 38.6566591124814 
! Gamma         0                0                0                0                
! Port Impedance         50               0                50               0                
0.301003344481605              0.257082085676722 29.7831468752662 0.949824334016215 -59.9472563607153 0.949824334016215 -59.9472563607153 0.25704303664856 28.986185171637  
! Gamma         0                0                0                0                
! Port Impedance         50               0                50               0                
0.351170568561873              0.297114902172718 20.1983584461433 0.936361371559346 -69.7516374824775 0.936361371559346 -69.7516374824775 0.297054967907998 19.27881266554   
! Gamma         0                0                0                0                
! Port Impedance         50               0                50               0                
0.40133779264214               0.335847630263056 10.612941541296  0.921372299743453 -79.4871564335098 0.921372299743453 -79.4871564335099 0.3357664328891  9.57180564039344 
! Gamma         0                0                0                0                
! Port Impedance         50               0                50               0                
0.451505016722408              0.373098922835197 1.05371732958586 0.905032323246644 -89.1443207126111 0.905032323246644 -89.1443207126111 0.372995809418328 -0.107603059605092 
! Gamma         0                0                0                0                
! Port Impedance         50               0                50               0                
0.501672240802676              0.408714702308497 -8.45784104131432 0.887539768402663 -98.7146133704565 0.887539768402663 -98.7146133704566 0.408589665562729 -9.73753205296801 
! Gamma         0                0                0                0                
! Port Impedance         50               0                50               0                
0.551839464882943              0.442576091185286 -17.9038262689181 0.869106724112172 -108.190654354908 0.869106724112171 -108.190654354908 0.44243079753222 -19.2997571201161 
! Gamma         0                0                0                0                
! Port Impedance         50               0                50               0                
0.602006688963211              0.474604258988196 -27.2693779746631 0.84995095161861 -117.566320331382 0.849950951618609 -117.566320331382 0.474442884217488 -28.7792385881588 
! Gamma         0                0                0                0                
! Port Impedance         50               0                50               0                
0.652173913043478              0.504761160587224 -36.5426533510332 0.830288597471523 -126.836818637243 0.830288597471523 -126.836818637243 0.504590764043384 -38.1641127948196 
! Gamma         0                0                0                0                
! Port Impedance         50               0                50               0                
0.702341137123746              0.53304592865351 -45.7149175982163 0.810327746285334 -135.998706828212 0.810327746285334 -135.998706828212 0.532876163870945 -47.4457816944692 
! Gamma         0                0                0                0                
! Port Impedance         50               0                50               0                
0.752508361204013              0.559487409337806 -54.7805695163282 0.790262996344592 -145.049854066486 0.790262996344592 -145.049854066486 0.559329466865597 -56.6189181887483 
! Gamma         0                0                0                0                
! Port Impedance         50               0                50               0                
0.802675585284281              0.584133861404876 -63.7370178397196 0.770271221190962 -153.989346777477 0.770271221190962 -153.989346777477 0.583998646662239 -65.6813058520494 
! Gamma         0                0                0                0                
! Port Impedance         50               0                50               0                
0.852842809364548              0.607041111216877 -72.5843835092624 0.750508591064896 -162.817346153227 0.750508591064898 -162.817346153227 0.606936757133153 -74.6334921523049 
! Gamma         0                0                0                0                
! Port Impedance         50               0                50               0                
0.903010033444816              0.628260488288712 -81.3250382955055 0.731108824032005 -171.534908457624 0.731108824032007 -171.534908457624 0.628189380174327 -83.4782696505569 
! Gamma         0                0                0                0                
! Port Impedance         50               0                50               0                
0.953177257525084              0.647827734738267 -89.9630088836661 0.712182548158568 179.856219357832 0.712182548158568 179.856219357832 0.647783285280247 -92.2200180532911 
! Gamma         0                0                0                0                
! Port Impedance         50               0                50               0                
1.00334448160535               0.665779034358784 -98.5022814299672 0.693810768682182 171.354301089987 0.693810768682181 171.354301089987 0.665749505000189 -100.862700503695 
! Gamma         0                0                0                0                
! Port Impedance         50               0                50               0                
1.05351170568562               0.68255204537575 -106.92937604483 0.67600698469342 162.958195198549 0.676006984693419 162.958195198549 0.682611167644699 -109.390595050306 
! Gamma         0                0                0                0                
! Port Impedance         50               0                50               0                
1.10367892976589               0.69795887381109 -115.256854508429 0.658943428236643 154.65304604292  0.658943428236643 154.65304604292  0.698086183965256 -117.820273605225 
! Gamma         0                0                0                0                
! Port Impedance         50               0                50               0                
1.15384615384615               0.712088758240211 -123.48800566081 0.642650349407512 146.434400871903 0.642650349407511 146.434400871903 0.712265408642497 -126.154842050378 
! Gamma         0                0                0                0                
! Port Impedance         50               0                50               0                
1.20401337792642               0.725029781312414 -131.626725759372 0.627146716846464 138.297590503877 0.627146716846464 138.297590503877 0.725239009334607 -134.398130113235 
! Gamma         0                0                0                0                
! Port Impedance         50               0                50               0                
1.25418060200669               0.73686720572517 -139.677413061441 0.612441863599439 130.237776827665 0.61244186359944 130.237776827665 0.737094563990045 -142.55456820837 
! Gamma         0                0                0                0                
! Port Impedance         50               0                50               0                
1.30434782608696               0.747682200053666 -147.644868305929 0.598536986688846 122.24999383257  0.598536986688846 122.24999383257  0.74791558743639 -150.629071152045 
! Gamma         0                0                0                0                
! Port Impedance         50               0                50               0                
1.35451505016722               0.757550924786686 -155.534202575946 0.585426489256383 114.329183207972 0.585426489256384 114.329183207972 0.757780460250536 -158.626930428584 
! Gamma         0                0                0                0                
! Port Impedance         50               0                50               0                
1.40468227424749               0.766543938566117 -163.350753415165 0.573099163065822 106.470225534188 0.573099163065825 106.470225534188 0.766761718748688 -166.553716014237 
! Gamma         0                0                0                0                
! Port Impedance         50               0                50               0                
1.45484949832776               0.77472587981718 -171.100009546745 0.561539215520758 98.6679680369204 0.561539215520759 98.6679680369204 0.774925657737133 -174.415188161466 
! Gamma         0                0                0                0                
! Port Impedance         50               0                50               0                
1.50501672240803               0.782155378333587 -178.787544126467 0.550727149676583 90.917249808035  0.550727149676583 90.917249808035  0.782332195820802 177.78278094351  
! Gamma         0                0                0                0                
! Port Impedance         50               0                50               0                
1.55518394648829               0.78888515363792 173.581043846394 0.54064050847685 83.2129253132561 0.54064050847685 83.212925313256  0.789034954961234 170.034276102383 
! Gamma         0                0                0                0                
! Port Impedance         50               0                50               0                
1.60535117056856               0.794962260941494 166.000180544988 0.531254496025864 75.5498869174377 0.531254496025868 75.5498869174376 0.795081510184673 162.333399304466 
! Gamma         0                0                0                0                
! Port Impedance         50               0                50               0                
1.65551839464883               0.80042845038045 158.464361465597 0.522542489455811 67.9230870634164 0.522542489455813 67.9230870634162 0.800513770718057 154.674322046817 
! Gamma         0                0                0                0                
! Port Impedance         50               0                50               0                
1.7056856187291                0.805320610244122 150.968189476926 0.514476455123338 60.3275606423269 0.514476455123341 60.3275606423267 0.805368459524252 147.051330677599 
! Gamma         0                0                0                0                
! Port Impedance         50               0                50               0                
1.75585284280936               0.809671269689132 143.506407536894 0.507027282682159 52.7584479920113 0.50702728268216 52.7584479920112 0.809677663635657 139.458865663164 
! Gamma         0                0                0                0                
! Port Impedance         50               0                50               0                
1.80602006688963               0.813509140675674 136.073926814894 0.500165050174724 45.2110188549432 0.500165050174726 45.211018854943  0.813469432489557 131.891555632401 
! Gamma         0                0                0                0                
! Port Impedance         50               0                50               0                
1.8561872909699                0.816859682434067 128.665850903047 0.493859232771811 37.6806975169056 0.493859232771813 37.6806975169054 0.816768405465515 124.344246975779 
! Gamma         0                0                0                0                
! Port Impedance         50               0                50               0                
1.90635451505017               0.819745674632195 121.277496731613 0.488078867228506 30.1630892309482 0.488078867228507 30.163089230948  0.819596452959188 116.81202968348  
! Gamma         0                0                0                0                
! Port Impedance         50               0                50               0                
1.95652173913043               0.822187787598533 113.904412728951 0.482792683550014 22.6540079068278 0.482792683550017 22.6540079068277 0.821973317631939 109.290260006475 
! Gamma         0                0                0                0                
! Port Impedance         50               0                50               0                
2.0066889632107                0.824205139536402 106.542394690179 0.477969214773665 15.1495049132268 0.477969214773665 15.1495049132267 0.823917244045276 101.774580422817 
! Gamma         0                0                0                0                
! Port Impedance         50               0                50               0                
2.05685618729097               0.82581583174505 99.1874997444786 0.473576895153463 7.64589869883042 0.473576895153463 7.64589869883027 0.825445585854708 94.260937293455  
! Gamma         0                0                0                0                
! Port Impedance         50               0                50               0                
2.10702341137124               0.827037453558556 91.836058740448  0.469584156340142 0.139804790046887 0.469584156340143 0.139804790046772 0.826575380252391 86.7455964999462 
! Gamma         0                0                0                0                
! Port Impedance         50               0                50               0                
2.1571906354515                0.827887549145775 84.4846873029159 0.465959530328333 -7.37183442888179 0.465959530328332 -7.3718344288819 0.827323879575239 79.2251572718587 
! Gamma         0                0                0                0                
! Port Impedance         50               0                50               0                
2.20735785953177               0.828384038603658 77.1302957526909 0.462671766931263 -14.8917208984245 0.462671766931263 -14.8917208984246 0.827709030100042 71.6965643343635 
! Gamma         0                0                0                0                
! Port Impedance         50               0                50               0                
2.25752508361204               0.828545586035686 69.770098022092  0.459689972280422 -22.4221739158778 0.459689972280423 -22.4221739158778 0.827749888187827 64.1571184357604 
! Gamma         0                0                0                0                
! Port Impedance         50               0                50               0                
2.30769230769231               0.828391907639575 62.4016196423017 0.456983773281852 -29.9651060273219 0.456983773281854 -29.9651060273218 0.827466964261352 56.6044852490164 
! Gamma         0                0                0                0                
! Port Impedance         50               0                50               0                
2.35785953177257               0.827944013322049 55.0227048222938 0.454523511062976 -37.5220028825316 0.454523511062976 -37.5220028825316 0.826882485726485 49.0367025793932 
! Gamma         0                0                0                0                
! Port Impedance         50               0                50               0                
2.40802675585284               0.82722437608378 47.6315225817393 0.452280464218416 -45.0939082054695 0.452280464218417 -45.0939082054694 0.826020570977036 41.4521857502211 
! Gamma         0                0                0                0                
! Port Impedance         50               0                50               0                
2.45819397993311               0.826257024424016 40.2265718410705 0.450227100160066 -52.6814150257857 0.450227100160067 -52.6814150257856 0.824907308116025 33.8497309800035 
! Gamma         0                0                0                0                
! Port Impedance         50               0                50               0                
2.50836120401338               0.825067554328071 32.8066853103233 0.448337350197161 -60.2846642412605 0.448337350197162 -60.2846642412604 0.823570734007549 26.2285165059845 
! Gamma         0                0                0                0                
! Port Impedance         50               0                50               0                
2.55852842809365               0.823683059022918 25.3710319553182 0.446586901272906 -67.9033514286923 0.446586901272908 -67.9033514286922 0.822040711722635 18.5881011533526 
! Gamma         0                0                0                0                
! Port Impedance         50               0                50               0                
2.60869565217391               0.822131976591956 17.919117756904  0.44495349476924 -75.5367425883458 0.444953494769241 -75.5367425883457 0.820348707296133 10.9284199978134 
! Gamma         0                0                0                0                
! Port Impedance         50               0                50               0                
2.65886287625418               0.820443857679815 10.4507844196688 0.443417220696349 -83.1836991984923 0.44341722069635 -83.1836991984922 0.818527469864473 3.24977672665712 
! Gamma         0                0                0                0                
! Port Impedance         50               0                50               0                
2.70903010033445               0.818649057819013 2.96620563531788 0.441960794150693 -90.8427125838251 0.441960794150694 -90.8427125838251 0.816610622564143 -4.44716772450705 
! Gamma         0                0                0                0                
! Port Impedance         50               0                50               0                
2.75919732441472               0.816778361279223 -4.5341195315439 0.440569800369268 -98.5119471852361 0.44056980036927 -98.5119471852359 0.814632174868397 -12.1614106886887 
! Gamma         0                0                0                0                
! Port Impedance         50               0                50               0                
2.80936454849498               0.814862545668727 -12.0493765845141 0.439232895181073 -106.189291886327 0.439232895181074 -106.189291886327 0.812625970138509 -19.8916278449535 
! Gamma         0                0                0                0                
! Port Impedance         50               0                50               0                
2.85953177257525               0.812931898688392 -19.5784493027967 0.437941949216433 -113.872418137383 0.437941949216435 -113.872418137383 0.810625084876149 -27.636198205079 
! Gamma         0                0                0                0                
! Port Impedance         50               0                50               0                
2.90969899665552               0.811015700330426 -27.1199376114378 0.436692126821945 -121.558843254979 0.436692126821947 -121.558843254979 0.808661198306152 -35.3932342592818 
! Gamma         0                0                0                0                
! Port Impedance         50               0                50               0                
2.95986622073579               0.80914168531141 -34.6721799309496 0.435481894062379 -129.24599699745 0.435481894062381 -129.24599699745 0.806763952340503 -43.1606173895918 
! Gamma         0                0                0                0                
! Port Impedance         50               0                50               0                
3.01003344481605               0.807335501528088 -42.2332802039874 0.434312954182593 -136.931289348797 0.434312954182595 -136.931289348798 0.804960322559437 -50.9360384779293 
! Gamma         0                0                0                0                
! Port Impedance         50               0                50               0                
3.06020066889632               0.80562018074251 -49.8011396410908 0.433190113089754 -144.612177401992 0.433190113089755 -144.612177401992 0.80327402052819 -58.717043421797 
! Gamma         0                0                0                0                
! Port Impedance         50               0                50               0                
3.11036789297659               0.804015637485269 -57.3734930408484 0.432121081408516 -152.286229320312 0.432121081408517 -152.286229320312 0.801724946539085 -66.5010830360271 
! Gamma         0                0                0                0                
! Port Impedance         50               0                50               0                
3.16053511705686               0.802538211291192 -64.9479493324703 0.431116223093603 -159.951183563075 0.431116223093604 -159.951183563076 0.800328709779168 -74.2855665813212 
! Gamma         0                0                0                0                
! Port Impedance         50               0                50               0                
3.21070234113712               0.801200265868392 -72.5220357741447 0.430188263162035 -167.605001868894 0.430188263162036 -167.605001868894 0.799096230082957 -82.0679179390761 
! Gamma         0                0                0                0                
! Port Impedance         50               0                50               0                
3.26086956521739               0.800009856706966 -80.0932450350951 0.429351968645349 -175.245914866319 0.42935196864535 -175.245914866319 0.798033431998852 -89.8456332680498 
! Gamma         0                0                0                0                
! Port Impedance         50               0                50               0                
3.31103678929766               0.79897047605354 -87.6590842098574 0.42862381729882 177.127540405301 0.428623817298821 177.127540405301 0.797141038076679 -97.6163388505802 
! Gamma         0                0                0                0                
! Port Impedance         50               0                50               0                
3.36120401337793               0.798080881241696 -95.2171246761193 0.428021667998641 169.51649136675  0.428021667998641 169.51649136675  0.796414464296877 -105.37784777913 
! Gamma         0                0                0                0                
! Port Impedance         50               0                50               0                
3.41137123745819               0.797335009229691 -102.765051625316 0.427564445267799 161.92170907675  0.427564445267799 161.921709076749 0.795843816638298 -113.128214155987 
! Gamma         0                0                0                0                
! Port Impedance         50               0                50               0                
3.46153846153846               0.796721977022692 -110.300712076497 0.427271848222449 154.343595297018 0.42727184822245 154.343595297018 0.795413984137129 -120.865783580825 
! Gamma         0                0                0                0                
! Port Impedance         50               0                50               0                
3.51170568561873               0.796226164614382 -117.822160230954 0.42716409167836 146.782176758668 0.42716409167836 146.782176758668 0.795104820609125 -128.589238875121 
! Gamma         0                0                0                0                
! Port Impedance         50               0                50               0                
3.561872909699                 0.795827374326816 -125.327699134087 0.427261684452176 139.237105753678 0.427261684452175 139.237105753678 0.794891404631715 -136.297640225012 
! Gamma         0                0                0                0                
! Port Impedance         50               0                50               0                
3.61204013377926               0.795501058088171 -132.815917772041 0.427585247252575 131.707666061144 0.427585247252574 131.707666061144 0.794744365500049 -143.99045919556 
! Gamma         0                0                0                0                
! Port Impedance         50               0                50               0                
3.66220735785953               0.795218602363074 -140.285722929733 0.428155370149486 124.192783174253 0.428155370149485 124.192783174253 0.794630261715578 -151.667606357446 
! Gamma         0                0                0                0                
! Port Impedance         50               0                50               0                
3.7123745819398                0.79494765919892 -147.736365356671 0.428992507544955 116.691037810453 0.428992507544954 116.691037810453 0.794511998120321 -159.329452549465 
! Gamma         0                0                0                0                
! Port Impedance         50               0                50               0                
3.76254180602007               0.794652511195137 -155.167460009423 0.430116906900236 109.200681751749 0.430116906900236 109.20068175175  0.794349267995683 -166.976844056806 
! Gamma         0                0                0                0                
! Port Impedance         50               0                50               0                
3.81270903010033               0.794294458126154 -162.579000347568 0.431548566204444 101.719655161763 0.431548566204444 101.719655161763 0.794099007211977 -174.611112199815 
! Gamma         0                0                0                0                
! Port Impedance         50               0                50               0                
3.8628762541806                0.79383221340923 -169.97136683902 0.433307214267813 94.2456046489244 0.433307214267813 94.2456046489246 0.793715848737114 177.765922010064 
! Gamma         0                0                0                0                
! Port Impedance         50               0                50               0                
3.91304347826087               0.793222299540766 -177.34532996979 0.435412307329252 86.7759014808576 0.435412307329251 86.7759014808577 0.793152567379078 170.151947386703 
! Gamma         0                0                0                0                
! Port Impedance         50               0                50               0                
3.96321070234114               0.792419432952613 175.297951853938 0.43788303511274 79.3076594951816 0.437883035112739 79.3076594951817 0.792360506442018 162.544165452331 
! Gamma         0                0                0                0                
! Port Impedance         50               0                50               0                
4.0133779264214                0.791376890382862 167.956939079915 0.440738329276348 71.8377523911491 0.440738329276348 71.8377523911492 0.791289979929536 154.939295890965 
! Gamma         0                0                0                0                
! Port Impedance         50               0                50               0                
4.06354515050167               0.790046850736701 160.62972203274  0.443996867102404 64.3628302206927 0.443996867102404 64.3628302206928 0.789890645959507 147.333583833286 
! Gamma         0                0                0                0                
! Port Impedance         50               0                50               0                
4.11371237458194               0.788380708463315 153.314035806386 0.44767706321921 56.8793350250446 0.44767706321921 56.8793350250448 0.788111849111441 139.722808330243 
! Gamma         0                0                0                0                
! Port Impedance         50               0                50               0                